
Host: MacBook-Pro-7.local

Timers On : Wed Jun  4 14:37:02 2025
Timers Off: Wed Jun  4 14:37:08 2025

Wall Time:        5.90 seconds

                                                       Time (seconds)
Module                                       User      System        Wall        Calls

--------------------------------------------------------------------------------------

**************************************************************************************

Host: MacBook-Pro-7.local

Timers On : Wed Jun  4 14:37:09 2025
Timers Off: Wed Jun  4 14:37:11 2025

Wall Time:        2.42 seconds

                                                       Time (seconds)
Module                                       User      System        Wall        Calls

--------------------------------------------------------------------------------------

**************************************************************************************

Host: MacBook-Pro-7.local

Timers On : Wed Jun  4 14:38:56 2025
Timers Off: Wed Jun  4 14:39:05 2025

Wall Time:        9.74 seconds

                                                       Time (seconds)
Module                                       User      System        Wall        Calls

--------------------------------------------------------------------------------------

**************************************************************************************

Host: MacBook-Pro-7.local

Timers On : Wed Jun  4 14:39:07 2025
Timers Off: Wed Jun  4 14:39:18 2025

Wall Time:       10.82 seconds

                                                       Time (seconds)
Module                                       User      System        Wall        Calls

--------------------------------------------------------------------------------------

**************************************************************************************

Host: MacBook-Pro-7.local

Timers On : Wed Jun  4 14:40:02 2025
Timers Off: Wed Jun  4 14:40:12 2025

Wall Time:        9.45 seconds

                                                       Time (seconds)
Module                                       User      System        Wall        Calls

--------------------------------------------------------------------------------------

**************************************************************************************

Host: MacBook-Pro-7.local

Timers On : Wed Jun  4 14:40:21 2025
Timers Off: Wed Jun  4 14:40:26 2025

Wall Time:        5.65 seconds

                                                       Time (seconds)
Module                                       User      System        Wall        Calls

--------------------------------------------------------------------------------------

**************************************************************************************

Host: MacBook-Pro-7.local

Timers On : Wed Jun  4 14:40:28 2025
Timers Off: Wed Jun  4 14:40:30 2025

Wall Time:        2.15 seconds

                                                       Time (seconds)
Module                                       User      System        Wall        Calls

--------------------------------------------------------------------------------------

**************************************************************************************

Host: MacBook-Pro-7.local

Timers On : Wed Jun  4 14:40:33 2025
Timers Off: Wed Jun  4 14:40:35 2025

Wall Time:        2.44 seconds

                                                       Time (seconds)
Module                                       User      System        Wall        Calls

--------------------------------------------------------------------------------------

**************************************************************************************

Host: MacBook-Pro-7.local

Timers On : Wed Jun  4 14:40:36 2025
Timers Off: Wed Jun  4 14:40:38 2025

Wall Time:        1.92 seconds

                                                       Time (seconds)
Module                                       User      System        Wall        Calls

--------------------------------------------------------------------------------------

**************************************************************************************

Host: MacBook-Pro-7.local

Timers On : Wed Jun  4 14:41:36 2025
Timers Off: Wed Jun  4 14:41:37 2025

Wall Time:        1.69 seconds

                                                       Time (seconds)
Module                                       User      System        Wall        Calls

--------------------------------------------------------------------------------------

**************************************************************************************

Host: MacBook-Pro-7.local

Timers On : Wed Jun  4 14:41:38 2025
Timers Off: Wed Jun  4 14:41:39 2025

Wall Time:        1.35 seconds

                                                       Time (seconds)
Module                                       User      System        Wall        Calls

--------------------------------------------------------------------------------------

**************************************************************************************

Host: MacBook-Pro-7.local

Timers On : Wed Jun  4 14:42:06 2025
Timers Off: Wed Jun  4 14:42:07 2025

Wall Time:        1.57 seconds

                                                       Time (seconds)
Module                                       User      System        Wall        Calls

--------------------------------------------------------------------------------------

**************************************************************************************

Host: MacBook-Pro-7.local

Timers On : Wed Jun  4 14:42:08 2025
Timers Off: Wed Jun  4 14:42:09 2025

Wall Time:        0.92 seconds

                                                       Time (seconds)
Module                                       User      System        Wall        Calls

--------------------------------------------------------------------------------------

**************************************************************************************

Host: MacBook-Pro-7.local

Timers On : Wed Jun  4 14:42:28 2025
Timers Off: Wed Jun  4 14:42:30 2025

Wall Time:        1.74 seconds

                                                       Time (seconds)
Module                                       User      System        Wall        Calls

--------------------------------------------------------------------------------------

**************************************************************************************

Host: MacBook-Pro-7.local

Timers On : Wed Jun  4 14:42:30 2025
Timers Off: Wed Jun  4 14:42:32 2025

Wall Time:        1.85 seconds

                                                       Time (seconds)
Module                                       User      System        Wall        Calls

--------------------------------------------------------------------------------------

**************************************************************************************

Host: MacBook-Pro-7.local

Timers On : Wed Jun  4 14:43:47 2025
Timers Off: Wed Jun  4 14:43:51 2025

Wall Time:        3.50 seconds

                                                       Time (seconds)
Module                                       User      System        Wall        Calls

--------------------------------------------------------------------------------------

**************************************************************************************

Host: MacBook-Pro-7.local

Timers On : Wed Jun  4 14:43:52 2025
Timers Off: Wed Jun  4 14:43:54 2025

Wall Time:        2.53 seconds

                                                       Time (seconds)
Module                                       User      System        Wall        Calls

--------------------------------------------------------------------------------------

**************************************************************************************

Host: MacBook-Pro-7.local

Timers On : Wed Jun  4 14:44:01 2025
Timers Off: Wed Jun  4 14:44:03 2025

Wall Time:        1.91 seconds

                                                       Time (seconds)
Module                                       User      System        Wall        Calls

--------------------------------------------------------------------------------------

**************************************************************************************

Host: MacBook-Pro-7.local

Timers On : Wed Jun  4 14:44:04 2025
Timers Off: Wed Jun  4 14:44:06 2025

Wall Time:        1.71 seconds

                                                       Time (seconds)
Module                                       User      System        Wall        Calls

--------------------------------------------------------------------------------------

**************************************************************************************

Host: MacBook-Pro-7.local

Timers On : Wed Jun  4 14:45:20 2025
Timers Off: Wed Jun  4 14:45:22 2025

Wall Time:        2.30 seconds

                                                       Time (seconds)
Module                                       User      System        Wall        Calls

--------------------------------------------------------------------------------------

**************************************************************************************

Host: MacBook-Pro-7.local

Timers On : Wed Jun  4 14:45:20 2025
Timers Off: Wed Jun  4 14:45:22 2025

Wall Time:        2.19 seconds

                                                       Time (seconds)
Module                                       User      System        Wall        Calls

--------------------------------------------------------------------------------------

**************************************************************************************

Host: MacBook-Pro-7.local

Timers On : Wed Jun  4 14:45:23 2025
Timers Off: Wed Jun  4 14:45:25 2025

Wall Time:        1.85 seconds

                                                       Time (seconds)
Module                                       User      System        Wall        Calls

--------------------------------------------------------------------------------------

**************************************************************************************

Host: MacBook-Pro-7.local

Timers On : Wed Jun  4 14:45:23 2025
Timers Off: Wed Jun  4 14:45:25 2025

Wall Time:        1.84 seconds

                                                       Time (seconds)
Module                                       User      System        Wall        Calls

--------------------------------------------------------------------------------------

**************************************************************************************

Host: MacBook-Pro-7.local

Timers On : Wed Jun  4 14:46:25 2025
Timers Off: Wed Jun  4 14:46:30 2025

Wall Time:        4.67 seconds

                                                       Time (seconds)
Module                                       User      System        Wall        Calls

--------------------------------------------------------------------------------------

**************************************************************************************

Host: MacBook-Pro-7.local

Timers On : Wed Jun  4 14:46:41 2025
Timers Off: Wed Jun  4 14:46:46 2025

Wall Time:        5.35 seconds

                                                       Time (seconds)
Module                                       User      System        Wall        Calls

--------------------------------------------------------------------------------------

**************************************************************************************

Host: MacBook-Pro-7.local

Timers On : Wed Jun  4 14:46:45 2025
Timers Off: Wed Jun  4 14:46:53 2025

Wall Time:        8.16 seconds

                                                       Time (seconds)
Module                                       User      System        Wall        Calls

--------------------------------------------------------------------------------------

**************************************************************************************

Host: MacBook-Pro-7.local

Timers On : Wed Jun  4 14:46:49 2025
Timers Off: Wed Jun  4 14:46:54 2025

Wall Time:        5.45 seconds

                                                       Time (seconds)
Module                                       User      System        Wall        Calls

--------------------------------------------------------------------------------------

**************************************************************************************

Host: MacBook-Pro-7.local

Timers On : Wed Jun  4 14:46:55 2025
Timers Off: Wed Jun  4 14:46:57 2025

Wall Time:        2.88 seconds

                                                       Time (seconds)
Module                                       User      System        Wall        Calls

--------------------------------------------------------------------------------------

**************************************************************************************
