
Host: MacBook-Pro-7.local

Timers On : Thu Jul 10 19:59:29 2025
Timers Off: Thu Jul 10 19:59:34 2025

Wall Time:        4.29 seconds

                                                       Time (seconds)
Module                                       User      System        Wall        Calls

--------------------------------------------------------------------------------------

**************************************************************************************

Host: MacBook-Pro-7.local

Timers On : Thu Jul 10 19:59:55 2025
Timers Off: Thu Jul 10 19:59:55 2025

Wall Time:        0.65 seconds

                                                       Time (seconds)
Module                                       User      System        Wall        Calls

--------------------------------------------------------------------------------------

**************************************************************************************

Host: MacBook-Pro-7.local

Timers On : Thu Jul 10 20:00:29 2025
Timers Off: Thu Jul 10 20:00:29 2025

Wall Time:        0.58 seconds

                                                       Time (seconds)
Module                                       User      System        Wall        Calls

--------------------------------------------------------------------------------------

**************************************************************************************

Host: MacBook-Pro-7.local

Timers On : Thu Jul 10 20:00:36 2025
Timers Off: Thu Jul 10 20:00:37 2025

Wall Time:        0.60 seconds

                                                       Time (seconds)
Module                                       User      System        Wall        Calls

--------------------------------------------------------------------------------------

**************************************************************************************

Host: MacBook-Pro-7.local

Timers On : Thu Jul 10 20:00:43 2025
Timers Off: Thu Jul 10 20:00:44 2025

Wall Time:        0.60 seconds

                                                       Time (seconds)
Module                                       User      System        Wall        Calls

--------------------------------------------------------------------------------------

**************************************************************************************

Host: MacBook-Pro-7.local

Timers On : Thu Jul 10 20:03:31 2025
Timers Off: Thu Jul 10 20:03:32 2025

Wall Time:        0.61 seconds

                                                       Time (seconds)
Module                                       User      System        Wall        Calls

--------------------------------------------------------------------------------------

**************************************************************************************

Host: MacBook-Pro-7.local

Timers On : Thu Jul 10 20:04:05 2025
Timers Off: Thu Jul 10 20:04:06 2025

Wall Time:        0.66 seconds

                                                       Time (seconds)
Module                                       User      System        Wall        Calls

--------------------------------------------------------------------------------------

**************************************************************************************

Host: MacBook-Pro-7.local

Timers On : Thu Jul 10 20:04:06 2025
Timers Off: Thu Jul 10 20:04:07 2025

Wall Time:        0.59 seconds

                                                       Time (seconds)
Module                                       User      System        Wall        Calls

--------------------------------------------------------------------------------------

**************************************************************************************

Host: MacBook-Pro-7.local

Timers On : Thu Jul 10 20:04:07 2025
Timers Off: Thu Jul 10 20:04:08 2025

Wall Time:        0.57 seconds

                                                       Time (seconds)
Module                                       User      System        Wall        Calls

--------------------------------------------------------------------------------------

**************************************************************************************

Host: MacBook-Pro-7.local

Timers On : Thu Jul 10 20:04:08 2025
Timers Off: Thu Jul 10 20:04:09 2025

Wall Time:        0.58 seconds

                                                       Time (seconds)
Module                                       User      System        Wall        Calls

--------------------------------------------------------------------------------------

**************************************************************************************
