
Host: MacBook-Pro-7.local

Timers On : Wed Jun  4 14:37:02 2025
Timers Off: Wed Jun  4 14:37:08 2025

Wall Time:        5.90 seconds

                                                       Time (seconds)
Module                                       User      System        Wall        Calls

--------------------------------------------------------------------------------------

**************************************************************************************

Host: MacBook-Pro-7.local

Timers On : Wed Jun  4 14:37:09 2025
Timers Off: Wed Jun  4 14:37:11 2025

Wall Time:        2.42 seconds

                                                       Time (seconds)
Module                                       User      System        Wall        Calls

--------------------------------------------------------------------------------------

**************************************************************************************

Host: MacBook-Pro-7.local

Timers On : Wed Jun  4 14:38:56 2025
Timers Off: Wed Jun  4 14:39:05 2025

Wall Time:        9.74 seconds

                                                       Time (seconds)
Module                                       User      System        Wall        Calls

--------------------------------------------------------------------------------------

**************************************************************************************

Host: MacBook-Pro-7.local

Timers On : Wed Jun  4 14:39:07 2025
Timers Off: Wed Jun  4 14:39:18 2025

Wall Time:       10.82 seconds

                                                       Time (seconds)
Module                                       User      System        Wall        Calls

--------------------------------------------------------------------------------------

**************************************************************************************

Host: MacBook-Pro-7.local

Timers On : Wed Jun  4 14:40:02 2025
Timers Off: Wed Jun  4 14:40:12 2025

Wall Time:        9.45 seconds

                                                       Time (seconds)
Module                                       User      System        Wall        Calls

--------------------------------------------------------------------------------------

**************************************************************************************

Host: MacBook-Pro-7.local

Timers On : Wed Jun  4 14:40:21 2025
Timers Off: Wed Jun  4 14:40:26 2025

Wall Time:        5.65 seconds

                                                       Time (seconds)
Module                                       User      System        Wall        Calls

--------------------------------------------------------------------------------------

**************************************************************************************

Host: MacBook-Pro-7.local

Timers On : Wed Jun  4 14:40:28 2025
Timers Off: Wed Jun  4 14:40:30 2025

Wall Time:        2.15 seconds

                                                       Time (seconds)
Module                                       User      System        Wall        Calls

--------------------------------------------------------------------------------------

**************************************************************************************

Host: MacBook-Pro-7.local

Timers On : Wed Jun  4 14:40:33 2025
Timers Off: Wed Jun  4 14:40:35 2025

Wall Time:        2.44 seconds

                                                       Time (seconds)
Module                                       User      System        Wall        Calls

--------------------------------------------------------------------------------------

**************************************************************************************

Host: MacBook-Pro-7.local

Timers On : Wed Jun  4 14:40:36 2025
Timers Off: Wed Jun  4 14:40:38 2025

Wall Time:        1.92 seconds

                                                       Time (seconds)
Module                                       User      System        Wall        Calls

--------------------------------------------------------------------------------------

**************************************************************************************

Host: MacBook-Pro-7.local

Timers On : Wed Jun  4 14:41:36 2025
Timers Off: Wed Jun  4 14:41:37 2025

Wall Time:        1.69 seconds

                                                       Time (seconds)
Module                                       User      System        Wall        Calls

--------------------------------------------------------------------------------------

**************************************************************************************

Host: MacBook-Pro-7.local

Timers On : Wed Jun  4 14:41:38 2025
Timers Off: Wed Jun  4 14:41:39 2025

Wall Time:        1.35 seconds

                                                       Time (seconds)
Module                                       User      System        Wall        Calls

--------------------------------------------------------------------------------------

**************************************************************************************

Host: MacBook-Pro-7.local

Timers On : Wed Jun  4 14:42:06 2025
Timers Off: Wed Jun  4 14:42:07 2025

Wall Time:        1.57 seconds

                                                       Time (seconds)
Module                                       User      System        Wall        Calls

--------------------------------------------------------------------------------------

**************************************************************************************

Host: MacBook-Pro-7.local

Timers On : Wed Jun  4 14:42:08 2025
Timers Off: Wed Jun  4 14:42:09 2025

Wall Time:        0.92 seconds

                                                       Time (seconds)
Module                                       User      System        Wall        Calls

--------------------------------------------------------------------------------------

**************************************************************************************

Host: MacBook-Pro-7.local

Timers On : Wed Jun  4 14:42:28 2025
Timers Off: Wed Jun  4 14:42:30 2025

Wall Time:        1.74 seconds

                                                       Time (seconds)
Module                                       User      System        Wall        Calls

--------------------------------------------------------------------------------------

**************************************************************************************

Host: MacBook-Pro-7.local

Timers On : Wed Jun  4 14:42:30 2025
Timers Off: Wed Jun  4 14:42:32 2025

Wall Time:        1.85 seconds

                                                       Time (seconds)
Module                                       User      System        Wall        Calls

--------------------------------------------------------------------------------------

**************************************************************************************

Host: MacBook-Pro-7.local

Timers On : Wed Jun  4 14:43:47 2025
Timers Off: Wed Jun  4 14:43:51 2025

Wall Time:        3.50 seconds

                                                       Time (seconds)
Module                                       User      System        Wall        Calls

--------------------------------------------------------------------------------------

**************************************************************************************

Host: MacBook-Pro-7.local

Timers On : Wed Jun  4 14:43:52 2025
Timers Off: Wed Jun  4 14:43:54 2025

Wall Time:        2.53 seconds

                                                       Time (seconds)
Module                                       User      System        Wall        Calls

--------------------------------------------------------------------------------------

**************************************************************************************

Host: MacBook-Pro-7.local

Timers On : Wed Jun  4 14:44:01 2025
Timers Off: Wed Jun  4 14:44:03 2025

Wall Time:        1.91 seconds

                                                       Time (seconds)
Module                                       User      System        Wall        Calls

--------------------------------------------------------------------------------------

**************************************************************************************

Host: MacBook-Pro-7.local

Timers On : Wed Jun  4 14:44:04 2025
Timers Off: Wed Jun  4 14:44:06 2025

Wall Time:        1.71 seconds

                                                       Time (seconds)
Module                                       User      System        Wall        Calls

--------------------------------------------------------------------------------------

**************************************************************************************

Host: MacBook-Pro-7.local

Timers On : Wed Jun  4 14:45:20 2025
Timers Off: Wed Jun  4 14:45:22 2025

Wall Time:        2.30 seconds

                                                       Time (seconds)
Module                                       User      System        Wall        Calls

--------------------------------------------------------------------------------------

**************************************************************************************

Host: MacBook-Pro-7.local

Timers On : Wed Jun  4 14:45:20 2025
Timers Off: Wed Jun  4 14:45:22 2025

Wall Time:        2.19 seconds

                                                       Time (seconds)
Module                                       User      System        Wall        Calls

--------------------------------------------------------------------------------------

**************************************************************************************

Host: MacBook-Pro-7.local

Timers On : Wed Jun  4 14:45:23 2025
Timers Off: Wed Jun  4 14:45:25 2025

Wall Time:        1.85 seconds

                                                       Time (seconds)
Module                                       User      System        Wall        Calls

--------------------------------------------------------------------------------------

**************************************************************************************

Host: MacBook-Pro-7.local

Timers On : Wed Jun  4 14:45:23 2025
Timers Off: Wed Jun  4 14:45:25 2025

Wall Time:        1.84 seconds

                                                       Time (seconds)
Module                                       User      System        Wall        Calls

--------------------------------------------------------------------------------------

**************************************************************************************

Host: MacBook-Pro-7.local

Timers On : Wed Jun  4 14:46:25 2025
Timers Off: Wed Jun  4 14:46:30 2025

Wall Time:        4.67 seconds

                                                       Time (seconds)
Module                                       User      System        Wall        Calls

--------------------------------------------------------------------------------------

**************************************************************************************

Host: MacBook-Pro-7.local

Timers On : Wed Jun  4 14:46:41 2025
Timers Off: Wed Jun  4 14:46:46 2025

Wall Time:        5.35 seconds

                                                       Time (seconds)
Module                                       User      System        Wall        Calls

--------------------------------------------------------------------------------------

**************************************************************************************

Host: MacBook-Pro-7.local

Timers On : Wed Jun  4 14:46:45 2025
Timers Off: Wed Jun  4 14:46:53 2025

Wall Time:        8.16 seconds

                                                       Time (seconds)
Module                                       User      System        Wall        Calls

--------------------------------------------------------------------------------------

**************************************************************************************

Host: MacBook-Pro-7.local

Timers On : Wed Jun  4 14:46:49 2025
Timers Off: Wed Jun  4 14:46:54 2025

Wall Time:        5.45 seconds

                                                       Time (seconds)
Module                                       User      System        Wall        Calls

--------------------------------------------------------------------------------------

**************************************************************************************

Host: MacBook-Pro-7.local

Timers On : Wed Jun  4 14:46:55 2025
Timers Off: Wed Jun  4 14:46:57 2025

Wall Time:        2.88 seconds

                                                       Time (seconds)
Module                                       User      System        Wall        Calls

--------------------------------------------------------------------------------------

**************************************************************************************

Host: MacBook-Pro-7.local

Timers On : Wed Jun  4 15:34:58 2025
Timers Off: Wed Jun  4 15:35:00 2025

Wall Time:        1.29 seconds

                                                       Time (seconds)
Module                                       User      System        Wall        Calls

--------------------------------------------------------------------------------------

**************************************************************************************

Host: MacBook-Pro-7.local

Timers On : Wed Jun  4 15:35:00 2025
Timers Off: Wed Jun  4 15:35:01 2025

Wall Time:        0.83 seconds

                                                       Time (seconds)
Module                                       User      System        Wall        Calls

--------------------------------------------------------------------------------------

**************************************************************************************

Host: MacBook-Pro-7.local

Timers On : Wed Jun  4 15:35:39 2025
Timers Off: Wed Jun  4 15:35:41 2025

Wall Time:        1.21 seconds

                                                       Time (seconds)
Module                                       User      System        Wall        Calls

--------------------------------------------------------------------------------------

**************************************************************************************

Host: MacBook-Pro-7.local

Timers On : Wed Jun  4 15:35:41 2025
Timers Off: Wed Jun  4 15:35:42 2025

Wall Time:        0.88 seconds

                                                       Time (seconds)
Module                                       User      System        Wall        Calls

--------------------------------------------------------------------------------------

**************************************************************************************

Host: MacBook-Pro-7.local

Timers On : Wed Jun  4 15:35:58 2025
Timers Off: Wed Jun  4 15:35:59 2025

Wall Time:        1.71 seconds

                                                       Time (seconds)
Module                                       User      System        Wall        Calls

--------------------------------------------------------------------------------------

**************************************************************************************

Host: MacBook-Pro-7.local

Timers On : Wed Jun  4 15:36:00 2025
Timers Off: Wed Jun  4 15:36:01 2025

Wall Time:        1.03 seconds

                                                       Time (seconds)
Module                                       User      System        Wall        Calls

--------------------------------------------------------------------------------------

**************************************************************************************

Host: MacBook-Pro-7.local

Timers On : Wed Jun  4 15:36:02 2025
Timers Off: Wed Jun  4 15:36:04 2025

Wall Time:        1.08 seconds

                                                       Time (seconds)
Module                                       User      System        Wall        Calls

--------------------------------------------------------------------------------------

**************************************************************************************

Host: MacBook-Pro-7.local

Timers On : Wed Jun  4 15:36:04 2025
Timers Off: Wed Jun  4 15:36:05 2025

Wall Time:        1.28 seconds

                                                       Time (seconds)
Module                                       User      System        Wall        Calls

--------------------------------------------------------------------------------------

**************************************************************************************

Host: MacBook-Pro-7.local

Timers On : Wed Jun  4 15:37:43 2025
Timers Off: Wed Jun  4 15:37:44 2025

Wall Time:        1.57 seconds

                                                       Time (seconds)
Module                                       User      System        Wall        Calls

--------------------------------------------------------------------------------------

**************************************************************************************

Host: MacBook-Pro-7.local

Timers On : Wed Jun  4 15:37:45 2025
Timers Off: Wed Jun  4 15:37:46 2025

Wall Time:        1.23 seconds

                                                       Time (seconds)
Module                                       User      System        Wall        Calls

--------------------------------------------------------------------------------------

**************************************************************************************

Host: MacBook-Pro-7.local

Timers On : Wed Jun  4 15:38:27 2025
Timers Off: Wed Jun  4 15:38:29 2025

Wall Time:        2.05 seconds

                                                       Time (seconds)
Module                                       User      System        Wall        Calls

--------------------------------------------------------------------------------------

**************************************************************************************

Host: MacBook-Pro-7.local

Timers On : Wed Jun  4 15:38:28 2025
Timers Off: Wed Jun  4 15:38:29 2025

Wall Time:        1.87 seconds

                                                       Time (seconds)
Module                                       User      System        Wall        Calls

--------------------------------------------------------------------------------------

**************************************************************************************

Host: MacBook-Pro-7.local

Timers On : Wed Jun  4 15:38:28 2025
Timers Off: Wed Jun  4 15:38:29 2025

Wall Time:        1.36 seconds

                                                       Time (seconds)
Module                                       User      System        Wall        Calls

--------------------------------------------------------------------------------------

**************************************************************************************

Host: MacBook-Pro-7.local

Timers On : Wed Jun  4 15:38:30 2025
Timers Off: Wed Jun  4 15:38:32 2025

Wall Time:        1.48 seconds

                                                       Time (seconds)
Module                                       User      System        Wall        Calls

--------------------------------------------------------------------------------------

**************************************************************************************

Host: MacBook-Pro-7.local

Timers On : Wed Jun  4 15:38:31 2025
Timers Off: Wed Jun  4 15:38:32 2025

Wall Time:        1.31 seconds

                                                       Time (seconds)
Module                                       User      System        Wall        Calls

--------------------------------------------------------------------------------------

**************************************************************************************

Host: MacBook-Pro-7.local

Timers On : Wed Jun  4 15:38:31 2025
Timers Off: Wed Jun  4 15:38:32 2025

Wall Time:        1.37 seconds

                                                       Time (seconds)
Module                                       User      System        Wall        Calls

--------------------------------------------------------------------------------------

**************************************************************************************

Host: MacBook-Pro-7.local

Timers On : Wed Jun  4 15:38:32 2025
Timers Off: Wed Jun  4 15:38:33 2025

Wall Time:        0.99 seconds

                                                       Time (seconds)
Module                                       User      System        Wall        Calls

--------------------------------------------------------------------------------------

**************************************************************************************

Host: MacBook-Pro-7.local

Timers On : Wed Jun  4 15:38:34 2025
Timers Off: Wed Jun  4 15:38:35 2025

Wall Time:        1.02 seconds

                                                       Time (seconds)
Module                                       User      System        Wall        Calls

--------------------------------------------------------------------------------------

**************************************************************************************

Host: MacBook-Pro-7.local

Timers On : Wed Jun  4 15:38:47 2025
Timers Off: Wed Jun  4 15:38:48 2025

Wall Time:        1.26 seconds

                                                       Time (seconds)
Module                                       User      System        Wall        Calls

--------------------------------------------------------------------------------------

**************************************************************************************

Host: MacBook-Pro-7.local

Timers On : Wed Jun  4 15:38:49 2025
Timers Off: Wed Jun  4 15:38:50 2025

Wall Time:        0.83 seconds

                                                       Time (seconds)
Module                                       User      System        Wall        Calls

--------------------------------------------------------------------------------------

**************************************************************************************


Host: MacBook-Pro-7.local
Host: MacBook-Pro-7.local


Timers On : Wed Jun  4 15:39:00 2025
Timers On : Wed Jun  4 15:39:00 2025
Timers Off: Wed Jun  4 15:39:01 2025
Timers Off: Wed Jun  4 15:39:01 2025

Wall Time:        1.77 seconds


Wall Time:        1.39 seconds

                                                       Time (seconds)
                                                       Time (seconds)
Module                                       User      System        Wall        Calls
Module                                       User      System        Wall        Calls

--------------------------------------------------------------------------------------

--------------------------------------------------------------------------------------

**************************************************************************************

**************************************************************************************

Host: MacBook-Pro-7.local


Host: MacBook-Pro-7.local

Timers On : Wed Jun  4 15:39:02 2025
Timers On : Wed Jun  4 15:39:02 2025
Timers Off: Wed Jun  4 15:39:03 2025
Timers Off: Wed Jun  4 15:39:03 2025

Wall Time:        0.85 seconds


Wall Time:        0.85 seconds

                                                       Time (seconds)
                                                       Time (seconds)
Module                                       User      System        Wall        Calls
Module                                       User      System        Wall        Calls

--------------------------------------------------------------------------------------

--------------------------------------------------------------------------------------

**************************************************************************************

**************************************************************************************

Host: MacBook-Pro-7.local

Timers On : Wed Jun  4 15:39:21 2025
Timers Off: Wed Jun  4 15:39:22 2025

Wall Time:        1.33 seconds

                                                       Time (seconds)
Module                                       User      System        Wall        Calls

--------------------------------------------------------------------------------------

**************************************************************************************

Host: MacBook-Pro-7.local

Timers On : Wed Jun  4 15:39:23 2025
Timers Off: Wed Jun  4 15:39:24 2025

Wall Time:        1.64 seconds

                                                       Time (seconds)
Module                                       User      System        Wall        Calls

--------------------------------------------------------------------------------------

**************************************************************************************


Host: MacBook-Pro-7.local

Host: MacBook-Pro-7.local
Timers On : Wed Jun  4 15:39:38 2025

Timers Off: Wed Jun  4 15:39:40 2025
Timers On : Wed Jun  4 15:39:38 2025

Wall Time:        2.16 seconds

Timers Off: Wed Jun  4 15:39:40 2025
                                                       Time (seconds)

Wall Time:        1.90 seconds

Module                                       User      System        Wall        Calls
                                                       Time (seconds)

--------------------------------------------------------------------------------------
Module                                       User      System        Wall        Calls

**************************************************************************************

--------------------------------------------------------------------------------------

**************************************************************************************

Host: MacBook-Pro-7.local

Timers On : Wed Jun  4 15:39:41 2025
Timers Off: Wed Jun  4 15:39:43 2025

Wall Time:        2.22 seconds

                                                       Time (seconds)
Module                                       User      System        Wall        Calls

--------------------------------------------------------------------------------------

**************************************************************************************

Host: MacBook-Pro-7.local

Timers On : Wed Jun  4 15:39:41 2025
Timers Off: Wed Jun  4 15:39:43 2025

Wall Time:        2.20 seconds

                                                       Time (seconds)
Module                                       User      System        Wall        Calls

--------------------------------------------------------------------------------------

**************************************************************************************

Host: MacBook-Pro-7.local

Timers On : Wed Jun  4 15:40:10 2025
Timers Off: Wed Jun  4 15:40:12 2025

Wall Time:        2.25 seconds

                                                       Time (seconds)
Module                                       User      System        Wall        Calls

--------------------------------------------------------------------------------------

**************************************************************************************

Host: MacBook-Pro-7.local

Timers On : Wed Jun  4 15:40:14 2025
Timers Off: Wed Jun  4 15:40:15 2025

Wall Time:        1.24 seconds

                                                       Time (seconds)
Module                                       User      System        Wall        Calls

--------------------------------------------------------------------------------------

**************************************************************************************

Host: MacBook-Pro-7.local

Timers On : Wed Jun  4 15:40:16 2025
Timers Off: Wed Jun  4 15:40:17 2025

Wall Time:        1.21 seconds

                                                       Time (seconds)
Module                                       User      System        Wall        Calls

--------------------------------------------------------------------------------------

**************************************************************************************

Host: MacBook-Pro-7.local

Timers On : Wed Jun  4 15:40:35 2025
Timers Off: Wed Jun  4 15:40:38 2025

Wall Time:        3.31 seconds

                                                       Time (seconds)
Module                                       User      System        Wall        Calls

--------------------------------------------------------------------------------------

**************************************************************************************

Host: MacBook-Pro-7.local

Timers On : Wed Jun  4 15:40:37 2025
Timers Off: Wed Jun  4 15:40:39 2025

Wall Time:        1.53 seconds

                                                       Time (seconds)
Module                                       User      System        Wall        Calls

--------------------------------------------------------------------------------------

**************************************************************************************

Host: MacBook-Pro-7.local

Timers On : Wed Jun  4 15:40:40 2025
Timers Off: Wed Jun  4 15:40:41 2025

Wall Time:        1.47 seconds

                                                       Time (seconds)
Module                                       User      System        Wall        Calls

--------------------------------------------------------------------------------------

**************************************************************************************

Host: MacBook-Pro-7.local

Timers On : Wed Jun  4 15:40:45 2025
Timers Off: Wed Jun  4 15:40:47 2025

Wall Time:        1.91 seconds

                                                       Time (seconds)
Module                                       User      System        Wall        Calls

--------------------------------------------------------------------------------------

**************************************************************************************

Host: MacBook-Pro-7.local

Timers On : Wed Jun  4 15:40:45 2025
Timers Off: Wed Jun  4 15:40:47 2025

Wall Time:        1.67 seconds

                                                       Time (seconds)
Module                                       User      System        Wall        Calls

--------------------------------------------------------------------------------------

**************************************************************************************

Host: MacBook-Pro-7.local

Timers On : Wed Jun  4 15:40:49 2025
Timers Off: Wed Jun  4 15:40:51 2025

Wall Time:        2.15 seconds

                                                       Time (seconds)
Module                                       User      System        Wall        Calls

--------------------------------------------------------------------------------------

**************************************************************************************

Host: MacBook-Pro-7.local

Timers On : Wed Jun  4 15:40:48 2025
Timers Off: Wed Jun  4 15:40:51 2025

Wall Time:        2.67 seconds

                                                       Time (seconds)
Module                                       User      System        Wall        Calls

--------------------------------------------------------------------------------------

**************************************************************************************

Host: MacBook-Pro-7.local

Timers On : Wed Jun  4 15:41:06 2025
Timers Off: Wed Jun  4 15:41:08 2025

Wall Time:        1.96 seconds

                                                       Time (seconds)
Module                                       User      System        Wall        Calls

--------------------------------------------------------------------------------------

**************************************************************************************

Host: MacBook-Pro-7.local

Timers On : Wed Jun  4 15:41:09 2025
Timers Off: Wed Jun  4 15:41:10 2025

Wall Time:        1.54 seconds

                                                       Time (seconds)
Module                                       User      System        Wall        Calls

--------------------------------------------------------------------------------------

**************************************************************************************

Host: MacBook-Pro-7.local

Timers On : Wed Jun  4 15:41:49 2025
Timers Off: Wed Jun  4 15:41:51 2025

Wall Time:        1.81 seconds

                                                       Time (seconds)
Module                                       User      System        Wall        Calls

--------------------------------------------------------------------------------------

**************************************************************************************

Host: MacBook-Pro-7.local

Timers On : Wed Jun  4 15:41:51 2025
Timers Off: Wed Jun  4 15:41:53 2025

Wall Time:        1.15 seconds

                                                       Time (seconds)
Module                                       User      System        Wall        Calls

--------------------------------------------------------------------------------------

**************************************************************************************

Host: MacBook-Pro-7.local

Timers On : Wed Jun  4 15:43:19 2025
Timers Off: Wed Jun  4 15:43:21 2025

Wall Time:        1.46 seconds

                                                       Time (seconds)
Module                                       User      System        Wall        Calls

--------------------------------------------------------------------------------------

**************************************************************************************

Host: MacBook-Pro-7.local

Timers On : Wed Jun  4 15:43:21 2025
Timers Off: Wed Jun  4 15:43:22 2025

Wall Time:        0.89 seconds

                                                       Time (seconds)
Module                                       User      System        Wall        Calls

--------------------------------------------------------------------------------------

**************************************************************************************

Host: MacBook-Pro-7.local

Timers On : Wed Jun  4 15:43:32 2025
Timers Off: Wed Jun  4 15:43:34 2025

Wall Time:        1.48 seconds

                                                       Time (seconds)
Module                                       User      System        Wall        Calls

--------------------------------------------------------------------------------------

**************************************************************************************

Host: MacBook-Pro-7.local

Timers On : Wed Jun  4 15:43:35 2025
Timers Off: Wed Jun  4 15:43:36 2025

Wall Time:        0.93 seconds

                                                       Time (seconds)
Module                                       User      System        Wall        Calls

--------------------------------------------------------------------------------------

**************************************************************************************

Host: MacBook-Pro-7.local

Timers On : Wed Jun  4 15:43:53 2025
Timers Off: Wed Jun  4 15:43:54 2025

Wall Time:        1.25 seconds

                                                       Time (seconds)
Module                                       User      System        Wall        Calls

--------------------------------------------------------------------------------------

**************************************************************************************

Host: MacBook-Pro-7.local

Timers On : Wed Jun  4 15:43:54 2025
Timers Off: Wed Jun  4 15:43:55 2025

Wall Time:        0.94 seconds

                                                       Time (seconds)
Module                                       User      System        Wall        Calls

--------------------------------------------------------------------------------------

**************************************************************************************

Host: MacBook-Pro-7.local

Timers On : Wed Jun  4 15:44:45 2025
Timers Off: Wed Jun  4 15:44:47 2025

Wall Time:        1.97 seconds

                                                       Time (seconds)
Module                                       User      System        Wall        Calls

--------------------------------------------------------------------------------------

**************************************************************************************

Host: MacBook-Pro-7.local

Timers On : Wed Jun  4 15:44:48 2025
Timers Off: Wed Jun  4 15:44:49 2025

Wall Time:        0.90 seconds

                                                       Time (seconds)
Module                                       User      System        Wall        Calls

--------------------------------------------------------------------------------------

**************************************************************************************

Host: MacBook-Pro-7.local

Timers On : Wed Jun  4 15:45:24 2025
Timers Off: Wed Jun  4 15:45:25 2025

Wall Time:        1.31 seconds

                                                       Time (seconds)
Module                                       User      System        Wall        Calls

--------------------------------------------------------------------------------------

**************************************************************************************

Host: MacBook-Pro-7.local

Timers On : Wed Jun  4 15:45:26 2025
Timers Off: Wed Jun  4 15:45:27 2025

Wall Time:        0.97 seconds

                                                       Time (seconds)
Module                                       User      System        Wall        Calls

--------------------------------------------------------------------------------------

**************************************************************************************

Host: MacBook-Pro-7.local

Timers On : Wed Jun  4 15:45:43 2025
Timers Off: Wed Jun  4 15:45:44 2025

Wall Time:        1.38 seconds

                                                       Time (seconds)
Module                                       User      System        Wall        Calls

--------------------------------------------------------------------------------------

**************************************************************************************

Host: MacBook-Pro-7.local

Timers On : Wed Jun  4 15:45:45 2025
Timers Off: Wed Jun  4 15:45:46 2025

Wall Time:        1.25 seconds

                                                       Time (seconds)
Module                                       User      System        Wall        Calls

--------------------------------------------------------------------------------------

**************************************************************************************

Host: MacBook-Pro-7.local

Timers On : Wed Jun  4 15:46:19 2025
Timers Off: Wed Jun  4 15:46:22 2025

Wall Time:        2.38 seconds

                                                       Time (seconds)
Module                                       User      System        Wall        Calls

--------------------------------------------------------------------------------------

**************************************************************************************

Host: MacBook-Pro-7.local

Timers On : Wed Jun  4 15:46:23 2025
Timers Off: Wed Jun  4 15:46:24 2025

Wall Time:        1.54 seconds

                                                       Time (seconds)
Module                                       User      System        Wall        Calls

--------------------------------------------------------------------------------------

**************************************************************************************

Host: MacBook-Pro-7.local

Timers On : Wed Jun  4 15:46:34 2025
Timers Off: Wed Jun  4 15:46:35 2025

Wall Time:        1.52 seconds

                                                       Time (seconds)
Module                                       User      System        Wall        Calls

--------------------------------------------------------------------------------------

**************************************************************************************

Host: MacBook-Pro-7.local

Timers On : Wed Jun  4 15:46:36 2025
Timers Off: Wed Jun  4 15:46:36 2025

Wall Time:        0.87 seconds

                                                       Time (seconds)
Module                                       User      System        Wall        Calls

--------------------------------------------------------------------------------------

**************************************************************************************

Host: MacBook-Pro-7.local

Timers On : Wed Jun  4 15:47:22 2025
Timers Off: Wed Jun  4 15:47:24 2025

Wall Time:        1.54 seconds

                                                       Time (seconds)
Module                                       User      System        Wall        Calls

--------------------------------------------------------------------------------------

**************************************************************************************

Host: MacBook-Pro-7.local

Timers On : Wed Jun  4 15:47:24 2025
Timers Off: Wed Jun  4 15:47:26 2025

Wall Time:        1.27 seconds

                                                       Time (seconds)
Module                                       User      System        Wall        Calls

--------------------------------------------------------------------------------------

**************************************************************************************

Host: MacBook-Pro-7.local

Timers On : Wed Jun  4 15:48:15 2025
Timers Off: Wed Jun  4 15:48:16 2025

Wall Time:        1.08 seconds

                                                       Time (seconds)
Module                                       User      System        Wall        Calls

--------------------------------------------------------------------------------------

**************************************************************************************

Host: MacBook-Pro-7.local

Timers On : Wed Jun  4 15:48:17 2025
Timers Off: Wed Jun  4 15:48:18 2025

Wall Time:        0.93 seconds

                                                       Time (seconds)
Module                                       User      System        Wall        Calls

--------------------------------------------------------------------------------------

**************************************************************************************

Host: MacBook-Pro-7.local

Timers On : Wed Jun  4 15:48:18 2025
Timers Off: Wed Jun  4 15:48:18 2025

Wall Time:        0.68 seconds

                                                       Time (seconds)
Module                                       User      System        Wall        Calls

--------------------------------------------------------------------------------------

**************************************************************************************

Host: MacBook-Pro-7.local

Timers On : Wed Jun  4 15:48:19 2025
Timers Off: Wed Jun  4 15:48:19 2025

Wall Time:        0.64 seconds

                                                       Time (seconds)
Module                                       User      System        Wall        Calls

--------------------------------------------------------------------------------------

**************************************************************************************

Host: MacBook-Pro-7.local

Timers On : Wed Jun  4 15:48:40 2025
Timers Off: Wed Jun  4 15:48:41 2025

Wall Time:        1.02 seconds

                                                       Time (seconds)
Module                                       User      System        Wall        Calls

--------------------------------------------------------------------------------------

**************************************************************************************

Host: MacBook-Pro-7.local

Timers On : Wed Jun  4 15:48:41 2025
Timers Off: Wed Jun  4 15:48:42 2025

Wall Time:        0.85 seconds

                                                       Time (seconds)
Module                                       User      System        Wall        Calls

--------------------------------------------------------------------------------------

**************************************************************************************

Host: MacBook-Pro-7.local

Timers On : Wed Jun  4 15:49:53 2025
Timers Off: Wed Jun  4 15:49:55 2025

Wall Time:        1.26 seconds

                                                       Time (seconds)
Module                                       User      System        Wall        Calls

--------------------------------------------------------------------------------------

**************************************************************************************

Host: MacBook-Pro-7.local

Timers On : Wed Jun  4 15:49:55 2025
Timers Off: Wed Jun  4 15:49:56 2025

Wall Time:        0.92 seconds

                                                       Time (seconds)
Module                                       User      System        Wall        Calls

--------------------------------------------------------------------------------------

**************************************************************************************


Host: MacBook-Pro-7.local

Timers On : Wed Jun  4 15:50:43 2025
Host: MacBook-Pro-7.local
Timers Off: Wed Jun  4 15:50:44 2025


Wall Time:        1.49 seconds

                                                       Time (seconds)
Timers On : Wed Jun  4 15:50:43 2025
Module                                       User      System        Wall        Calls
Timers Off: Wed Jun  4 15:50:44 2025

--------------------------------------------------------------------------------------

Wall Time:        1.59 seconds


**************************************************************************************
                                                       Time (seconds)
Module                                       User      System        Wall        Calls

--------------------------------------------------------------------------------------

**************************************************************************************

Host: MacBook-Pro-7.local

Timers On : Wed Jun  4 15:50:45 2025
Timers Off: Wed Jun  4 15:50:46 2025

Wall Time:        1.23 seconds

                                                       Time (seconds)
Module                                       User      System        Wall        Calls

--------------------------------------------------------------------------------------

**************************************************************************************

Host: MacBook-Pro-7.local

Timers On : Wed Jun  4 15:50:45 2025
Timers Off: Wed Jun  4 15:50:46 2025

Wall Time:        1.00 seconds

                                                       Time (seconds)
Module                                       User      System        Wall        Calls

--------------------------------------------------------------------------------------

**************************************************************************************

Host: MacBook-Pro-7.local

Timers On : Wed Jun  4 15:52:12 2025
Timers Off: Wed Jun  4 15:52:14 2025

Wall Time:        1.41 seconds

                                                       Time (seconds)
Module                                       User      System        Wall        Calls

--------------------------------------------------------------------------------------

**************************************************************************************

Host: MacBook-Pro-7.local

Timers On : Wed Jun  4 15:52:14 2025
Timers Off: Wed Jun  4 15:52:15 2025

Wall Time:        0.87 seconds

                                                       Time (seconds)
Module                                       User      System        Wall        Calls

--------------------------------------------------------------------------------------

**************************************************************************************

Host: MacBook-Pro-7.local

Timers On : Wed Jun  4 15:52:40 2025
Timers Off: Wed Jun  4 15:52:42 2025

Wall Time:        1.24 seconds

                                                       Time (seconds)
Module                                       User      System        Wall        Calls

--------------------------------------------------------------------------------------

**************************************************************************************

Host: MacBook-Pro-7.local

Timers On : Wed Jun  4 15:52:42 2025
Timers Off: Wed Jun  4 15:52:43 2025

Wall Time:        0.88 seconds

                                                       Time (seconds)
Module                                       User      System        Wall        Calls

--------------------------------------------------------------------------------------

**************************************************************************************

Host: MacBook-Pro-7.local

Timers On : Wed Jun  4 15:53:32 2025
Timers Off: Wed Jun  4 15:53:34 2025

Wall Time:        2.81 seconds

                                                       Time (seconds)
Module                                       User      System        Wall        Calls

--------------------------------------------------------------------------------------

**************************************************************************************

Host: MacBook-Pro-7.local

Timers On : Wed Jun  4 15:53:36 2025
Timers Off: Wed Jun  4 15:53:37 2025

Wall Time:        1.72 seconds

                                                       Time (seconds)
Module                                       User      System        Wall        Calls

--------------------------------------------------------------------------------------

**************************************************************************************

Host: MacBook-Pro-7.local

Timers On : Wed Jun  4 15:54:45 2025
Timers Off: Wed Jun  4 15:54:46 2025

Wall Time:        1.59 seconds

                                                       Time (seconds)
Module                                       User      System        Wall        Calls

--------------------------------------------------------------------------------------

**************************************************************************************

Host: MacBook-Pro-7.local

Timers On : Wed Jun  4 15:54:47 2025
Timers Off: Wed Jun  4 15:54:48 2025

Wall Time:        1.02 seconds

                                                       Time (seconds)
Module                                       User      System        Wall        Calls

--------------------------------------------------------------------------------------

**************************************************************************************

Host: MacBook-Pro-7.local

Timers On : Wed Jun  4 15:55:21 2025
Timers Off: Wed Jun  4 15:55:22 2025

Wall Time:        1.83 seconds

                                                       Time (seconds)
Module                                       User      System        Wall        Calls

--------------------------------------------------------------------------------------

**************************************************************************************

Host: MacBook-Pro-7.local

Timers On : Wed Jun  4 15:55:23 2025
Timers Off: Wed Jun  4 15:55:24 2025

Wall Time:        1.15 seconds

                                                       Time (seconds)
Module                                       User      System        Wall        Calls

--------------------------------------------------------------------------------------

**************************************************************************************

Host: MacBook-Pro-7.local

Timers On : Wed Jun  4 15:55:29 2025
Timers Off: Wed Jun  4 15:55:30 2025

Wall Time:        1.27 seconds

                                                       Time (seconds)
Module                                       User      System        Wall        Calls

--------------------------------------------------------------------------------------

**************************************************************************************

Host: MacBook-Pro-7.local

Timers On : Wed Jun  4 15:55:31 2025
Timers Off: Wed Jun  4 15:55:32 2025

Wall Time:        1.22 seconds

                                                       Time (seconds)
Module                                       User      System        Wall        Calls

--------------------------------------------------------------------------------------

**************************************************************************************

Host: MacBook-Pro-7.local

Timers On : Wed Jun  4 15:55:39 2025
Timers Off: Wed Jun  4 15:55:40 2025

Wall Time:        1.51 seconds

                                                       Time (seconds)
Module                                       User      System        Wall        Calls

--------------------------------------------------------------------------------------

**************************************************************************************

Host: MacBook-Pro-7.local

Timers On : Wed Jun  4 15:55:41 2025
Timers Off: Wed Jun  4 15:55:42 2025

Wall Time:        1.32 seconds

                                                       Time (seconds)
Module                                       User      System        Wall        Calls

--------------------------------------------------------------------------------------

**************************************************************************************

Host: MacBook-Pro-7.local

Timers On : Wed Jun  4 15:55:47 2025
Timers Off: Wed Jun  4 15:55:49 2025

Wall Time:        1.19 seconds

                                                       Time (seconds)
Module                                       User      System        Wall        Calls

--------------------------------------------------------------------------------------

**************************************************************************************

Host: MacBook-Pro-7.local

Timers On : Wed Jun  4 15:55:49 2025
Timers Off: Wed Jun  4 15:55:51 2025

Wall Time:        1.39 seconds

                                                       Time (seconds)
Module                                       User      System        Wall        Calls

--------------------------------------------------------------------------------------

**************************************************************************************

Host: MacBook-Pro-7.local

Timers On : Wed Jun  4 15:56:03 2025
Timers Off: Wed Jun  4 15:56:04 2025

Wall Time:        1.58 seconds

                                                       Time (seconds)
Module                                       User      System        Wall        Calls

--------------------------------------------------------------------------------------

**************************************************************************************

Host: MacBook-Pro-7.local

Timers On : Wed Jun  4 15:56:05 2025
Timers Off: Wed Jun  4 15:56:08 2025

Wall Time:        2.52 seconds

                                                       Time (seconds)
Module                                       User      System        Wall        Calls

--------------------------------------------------------------------------------------

**************************************************************************************

Host: MacBook-Pro-7.local

Timers On : Wed Jun  4 15:57:00 2025
Timers Off: Wed Jun  4 15:57:03 2025

Wall Time:        2.51 seconds

                                                       Time (seconds)
Module                                       User      System        Wall        Calls

--------------------------------------------------------------------------------------

**************************************************************************************

Host: MacBook-Pro-7.local

Timers On : Wed Jun  4 15:57:04 2025
Timers Off: Wed Jun  4 15:57:06 2025

Wall Time:        2.24 seconds

                                                       Time (seconds)
Module                                       User      System        Wall        Calls

--------------------------------------------------------------------------------------

**************************************************************************************

Host: MacBook-Pro-7.local

Timers On : Wed Jun  4 15:58:28 2025
Timers Off: Wed Jun  4 15:58:31 2025

Wall Time:        3.47 seconds

                                                       Time (seconds)
Module                                       User      System        Wall        Calls

--------------------------------------------------------------------------------------

**************************************************************************************

Host: MacBook-Pro-7.local

Timers On : Wed Jun  4 15:58:36 2025
Timers Off: Wed Jun  4 15:58:37 2025

Wall Time:        1.82 seconds

                                                       Time (seconds)
Module                                       User      System        Wall        Calls

--------------------------------------------------------------------------------------

**************************************************************************************

Host: MacBook-Pro-7.local

Timers On : Wed Jun  4 15:58:38 2025
Timers Off: Wed Jun  4 15:58:40 2025

Wall Time:        1.78 seconds

                                                       Time (seconds)
Module                                       User      System        Wall        Calls

--------------------------------------------------------------------------------------

**************************************************************************************

Host: MacBook-Pro-7.local

Timers On : Wed Jun  4 15:58:49 2025
Timers Off: Wed Jun  4 15:58:52 2025

Wall Time:        3.18 seconds

                                                       Time (seconds)
Module                                       User      System        Wall        Calls

--------------------------------------------------------------------------------------

**************************************************************************************

Host: MacBook-Pro-7.local

Timers On : Wed Jun  4 15:58:53 2025
Timers Off: Wed Jun  4 15:58:55 2025

Wall Time:        1.98 seconds

                                                       Time (seconds)
Module                                       User      System        Wall        Calls

--------------------------------------------------------------------------------------

**************************************************************************************

Host: MacBook-Pro-7.local

Timers On : Wed Jun  4 15:58:57 2025
Timers Off: Wed Jun  4 15:58:59 2025

Wall Time:        1.85 seconds

                                                       Time (seconds)
Module                                       User      System        Wall        Calls

--------------------------------------------------------------------------------------

**************************************************************************************

Host: MacBook-Pro-7.local

Timers On : Wed Jun  4 15:59:06 2025
Timers Off: Wed Jun  4 15:59:08 2025

Wall Time:        1.89 seconds

                                                       Time (seconds)
Module                                       User      System        Wall        Calls

--------------------------------------------------------------------------------------

**************************************************************************************

Host: MacBook-Pro-7.local

Timers On : Wed Jun  4 15:59:09 2025
Timers Off: Wed Jun  4 15:59:11 2025

Wall Time:        2.15 seconds

                                                       Time (seconds)
Module                                       User      System        Wall        Calls

--------------------------------------------------------------------------------------

**************************************************************************************

Host: MacBook-Pro-7.local

Timers On : Wed Jun  4 15:59:33 2025
Timers Off: Wed Jun  4 15:59:38 2025

Wall Time:        4.63 seconds

                                                       Time (seconds)
Module                                       User      System        Wall        Calls

--------------------------------------------------------------------------------------

**************************************************************************************

Host: MacBook-Pro-7.local

Timers On : Wed Jun  4 15:59:39 2025
Timers Off: Wed Jun  4 15:59:42 2025

Wall Time:        2.64 seconds

                                                       Time (seconds)
Module                                       User      System        Wall        Calls

--------------------------------------------------------------------------------------

**************************************************************************************

Host: MacBook-Pro-7.local

Timers On : Wed Jun  4 16:00:01 2025
Timers Off: Wed Jun  4 16:00:03 2025

Wall Time:        1.64 seconds

                                                       Time (seconds)
Module                                       User      System        Wall        Calls

--------------------------------------------------------------------------------------

**************************************************************************************

Host: MacBook-Pro-7.local

Timers On : Wed Jun  4 16:00:03 2025
Timers Off: Wed Jun  4 16:00:04 2025

Wall Time:        1.10 seconds

                                                       Time (seconds)
Module                                       User      System        Wall        Calls

--------------------------------------------------------------------------------------

**************************************************************************************

Host: MacBook-Pro-7.local

Timers On : Wed Jun  4 16:00:12 2025
Timers Off: Wed Jun  4 16:00:13 2025

Wall Time:        1.34 seconds

                                                       Time (seconds)
Module                                       User      System        Wall        Calls

--------------------------------------------------------------------------------------

**************************************************************************************

Host: MacBook-Pro-7.local

Timers On : Wed Jun  4 16:00:14 2025
Timers Off: Wed Jun  4 16:00:15 2025

Wall Time:        1.35 seconds

                                                       Time (seconds)
Module                                       User      System        Wall        Calls

--------------------------------------------------------------------------------------

**************************************************************************************

Host: MacBook-Pro-7.local

Timers On : Wed Jun  4 16:00:24 2025
Timers Off: Wed Jun  4 16:00:25 2025

Wall Time:        1.25 seconds

                                                       Time (seconds)
Module                                       User      System        Wall        Calls

--------------------------------------------------------------------------------------

**************************************************************************************

Host: MacBook-Pro-7.local

Timers On : Wed Jun  4 16:00:26 2025
Timers Off: Wed Jun  4 16:00:27 2025

Wall Time:        0.88 seconds

                                                       Time (seconds)
Module                                       User      System        Wall        Calls

--------------------------------------------------------------------------------------

**************************************************************************************

Host: MacBook-Pro-7.local

Timers On : Wed Jun  4 16:00:30 2025
Timers Off: Wed Jun  4 16:00:31 2025

Wall Time:        1.36 seconds

                                                       Time (seconds)
Module                                       User      System        Wall        Calls

--------------------------------------------------------------------------------------

**************************************************************************************

Host: MacBook-Pro-7.local

Timers On : Wed Jun  4 16:00:32 2025
Timers Off: Wed Jun  4 16:00:33 2025

Wall Time:        0.87 seconds

                                                       Time (seconds)
Module                                       User      System        Wall        Calls

--------------------------------------------------------------------------------------

**************************************************************************************

Host: MacBook-Pro-7.local

Timers On : Wed Jun  4 16:01:39 2025
Timers Off: Wed Jun  4 16:01:40 2025

Wall Time:        1.21 seconds

                                                       Time (seconds)
Module                                       User      System        Wall        Calls

--------------------------------------------------------------------------------------

**************************************************************************************

Host: MacBook-Pro-7.local

Timers On : Wed Jun  4 16:01:40 2025
Timers Off: Wed Jun  4 16:01:41 2025

Wall Time:        0.75 seconds

                                                       Time (seconds)
Module                                       User      System        Wall        Calls

--------------------------------------------------------------------------------------

**************************************************************************************

Host: MacBook-Pro-7.local

Timers On : Wed Jun  4 16:04:03 2025
Timers Off: Wed Jun  4 16:04:05 2025

Wall Time:        1.42 seconds

                                                       Time (seconds)
Module                                       User      System        Wall        Calls

--------------------------------------------------------------------------------------

**************************************************************************************

Host: MacBook-Pro-7.local

Timers On : Wed Jun  4 16:04:06 2025
Timers Off: Wed Jun  4 16:04:07 2025

Wall Time:        1.03 seconds

                                                       Time (seconds)
Module                                       User      System        Wall        Calls

--------------------------------------------------------------------------------------

**************************************************************************************

Host: MacBook-Pro-7.local

Timers On : Wed Jun  4 16:04:30 2025
Timers Off: Wed Jun  4 16:04:31 2025

Wall Time:        1.32 seconds

                                                       Time (seconds)
Module                                       User      System        Wall        Calls

--------------------------------------------------------------------------------------

**************************************************************************************

Host: MacBook-Pro-7.local

Timers On : Wed Jun  4 16:04:32 2025
Timers Off: Wed Jun  4 16:04:33 2025

Wall Time:        0.90 seconds

                                                       Time (seconds)
Module                                       User      System        Wall        Calls

--------------------------------------------------------------------------------------

**************************************************************************************

Host: MacBook-Pro-7.local

Timers On : Wed Jun  4 16:04:48 2025
Timers Off: Wed Jun  4 16:04:49 2025

Wall Time:        1.30 seconds

                                                       Time (seconds)
Module                                       User      System        Wall        Calls

--------------------------------------------------------------------------------------

**************************************************************************************

Host: MacBook-Pro-7.local

Timers On : Wed Jun  4 16:04:50 2025
Timers Off: Wed Jun  4 16:04:51 2025

Wall Time:        0.88 seconds

                                                       Time (seconds)
Module                                       User      System        Wall        Calls

--------------------------------------------------------------------------------------

**************************************************************************************

Host: MacBook-Pro-7.local

Timers On : Wed Jun  4 16:05:39 2025
Timers Off: Wed Jun  4 16:05:40 2025

Wall Time:        1.90 seconds

                                                       Time (seconds)
Module                                       User      System        Wall        Calls

--------------------------------------------------------------------------------------

**************************************************************************************

Host: MacBook-Pro-7.local

Timers On : Wed Jun  4 16:05:55 2025
Timers Off: Wed Jun  4 16:05:57 2025

Wall Time:        1.29 seconds

                                                       Time (seconds)
Module                                       User      System        Wall        Calls

--------------------------------------------------------------------------------------

**************************************************************************************

Host: MacBook-Pro-7.local

Timers On : Wed Jun  4 16:05:57 2025
Timers Off: Wed Jun  4 16:05:58 2025

Wall Time:        0.85 seconds

                                                       Time (seconds)
Module                                       User      System        Wall        Calls

--------------------------------------------------------------------------------------

**************************************************************************************

Host: MacBook-Pro-7.local

Timers On : Wed Jun  4 16:06:20 2025
Timers Off: Wed Jun  4 16:06:21 2025

Wall Time:        1.72 seconds

                                                       Time (seconds)
Module                                       User      System        Wall        Calls

--------------------------------------------------------------------------------------

**************************************************************************************

Host: MacBook-Pro-7.local

Timers On : Wed Jun  4 16:06:22 2025
Timers Off: Wed Jun  4 16:06:23 2025

Wall Time:        0.75 seconds

                                                       Time (seconds)
Module                                       User      System        Wall        Calls

--------------------------------------------------------------------------------------

**************************************************************************************

Host: MacBook-Pro-7.local

Timers On : Wed Jun  4 16:07:09 2025
Timers Off: Wed Jun  4 16:07:10 2025

Wall Time:        1.96 seconds

                                                       Time (seconds)
Module                                       User      System        Wall        Calls

--------------------------------------------------------------------------------------

**************************************************************************************

Host: MacBook-Pro-7.local

Timers On : Wed Jun  4 16:07:11 2025
Timers Off: Wed Jun  4 16:07:12 2025

Wall Time:        1.20 seconds

                                                       Time (seconds)
Module                                       User      System        Wall        Calls

--------------------------------------------------------------------------------------

**************************************************************************************

Host: MacBook-Pro-7.local

Timers On : Wed Jun  4 16:07:16 2025
Timers Off: Wed Jun  4 16:07:17 2025

Wall Time:        1.37 seconds

                                                       Time (seconds)
Module                                       User      System        Wall        Calls

--------------------------------------------------------------------------------------

**************************************************************************************

Host: MacBook-Pro-7.local

Timers On : Wed Jun  4 16:07:18 2025
Timers Off: Wed Jun  4 16:07:19 2025

Wall Time:        1.06 seconds

                                                       Time (seconds)
Module                                       User      System        Wall        Calls

--------------------------------------------------------------------------------------

**************************************************************************************

Host: MacBook-Pro-7.local

Timers On : Wed Jun  4 16:07:23 2025
Timers Off: Wed Jun  4 16:07:24 2025

Wall Time:        1.33 seconds

                                                       Time (seconds)
Module                                       User      System        Wall        Calls

--------------------------------------------------------------------------------------

**************************************************************************************

Host: MacBook-Pro-7.local

Timers On : Wed Jun  4 16:07:25 2025
Timers Off: Wed Jun  4 16:07:26 2025

Wall Time:        1.08 seconds

                                                       Time (seconds)
Module                                       User      System        Wall        Calls

--------------------------------------------------------------------------------------

**************************************************************************************

Host: MacBook-Pro-7.local

Timers On : Wed Jun  4 16:08:04 2025
Timers Off: Wed Jun  4 16:08:06 2025

Wall Time:        2.23 seconds

                                                       Time (seconds)
Module                                       User      System        Wall        Calls

--------------------------------------------------------------------------------------

**************************************************************************************

Host: MacBook-Pro-7.local

Timers On : Wed Jun  4 16:08:06 2025
Timers Off: Wed Jun  4 16:08:08 2025

Wall Time:        1.88 seconds

                                                       Time (seconds)
Module                                       User      System        Wall        Calls

--------------------------------------------------------------------------------------

**************************************************************************************

Host: MacBook-Pro-7.local

Timers On : Wed Jun  4 16:08:07 2025
Timers Off: Wed Jun  4 16:08:09 2025

Wall Time:        1.80 seconds

                                                       Time (seconds)
Module                                       User      System        Wall        Calls

--------------------------------------------------------------------------------------

**************************************************************************************

Host: MacBook-Pro-7.local

Timers On : Wed Jun  4 16:08:09 2025
Timers Off: Wed Jun  4 16:08:10 2025

Wall Time:        1.60 seconds

                                                       Time (seconds)
Module                                       User      System        Wall        Calls

--------------------------------------------------------------------------------------

**************************************************************************************

Host: MacBook-Pro-7.local

Timers On : Wed Jun  4 16:08:13 2025
Timers Off: Wed Jun  4 16:08:15 2025

Wall Time:        1.17 seconds

                                                       Time (seconds)
Module                                       User      System        Wall        Calls

--------------------------------------------------------------------------------------

**************************************************************************************

Host: MacBook-Pro-7.local

Timers On : Wed Jun  4 16:08:15 2025
Timers Off: Wed Jun  4 16:08:17 2025

Wall Time:        1.27 seconds

                                                       Time (seconds)
Module                                       User      System        Wall        Calls

--------------------------------------------------------------------------------------

**************************************************************************************

Host: MacBook-Pro-7.local

Timers On : Wed Jun  4 16:08:35 2025
Timers Off: Wed Jun  4 16:08:36 2025

Wall Time:        1.44 seconds

                                                       Time (seconds)
Module                                       User      System        Wall        Calls

--------------------------------------------------------------------------------------

**************************************************************************************

Host: MacBook-Pro-7.local

Timers On : Wed Jun  4 16:08:37 2025
Timers Off: Wed Jun  4 16:08:38 2025

Wall Time:        1.37 seconds

                                                       Time (seconds)
Module                                       User      System        Wall        Calls

--------------------------------------------------------------------------------------

**************************************************************************************

Host: MacBook-Pro-7.local

Timers On : Wed Jun  4 16:08:39 2025
Timers Off: Wed Jun  4 16:08:41 2025

Wall Time:        1.60 seconds

                                                       Time (seconds)
Module                                       User      System        Wall        Calls

--------------------------------------------------------------------------------------

**************************************************************************************

Host: MacBook-Pro-7.local

Timers On : Wed Jun  4 16:08:45 2025
Timers Off: Wed Jun  4 16:08:47 2025

Wall Time:        1.68 seconds

                                                       Time (seconds)
Module                                       User      System        Wall        Calls

--------------------------------------------------------------------------------------

**************************************************************************************

Host: MacBook-Pro-7.local

Timers On : Wed Jun  4 16:08:48 2025
Timers Off: Wed Jun  4 16:08:49 2025

Wall Time:        1.35 seconds

                                                       Time (seconds)
Module                                       User      System        Wall        Calls

--------------------------------------------------------------------------------------

**************************************************************************************

Host: MacBook-Pro-7.local

Timers On : Wed Jun  4 16:09:51 2025
Timers Off: Wed Jun  4 16:09:53 2025

Wall Time:        1.58 seconds

                                                       Time (seconds)
Module                                       User      System        Wall        Calls

--------------------------------------------------------------------------------------

[...]

                                                       Time (seconds)
Module                                       User      System        Wall        Calls

--------------------------------------------------------------------------------------

**************************************************************************************

Host: MacBook-Pro-7.local

Timers On : Wed Jun  4 16:29:53 2025
Timers Off: Wed Jun  4 16:29:55 2025

Wall Time:        1.58 seconds

                                                       Time (seconds)
Module                                       User      System        Wall        Calls

--------------------------------------------------------------------------------------

**************************************************************************************

Host: MacBook-Pro-7.local

Timers On : Wed Jun  4 16:29:55 2025
Timers Off: Wed Jun  4 16:29:56 2025

Wall Time:        1.03 seconds

                                                       Time (seconds)
Module                                       User      System        Wall        Calls

--------------------------------------------------------------------------------------

**************************************************************************************



Host: MacBook-Pro-7.local
Host: MacBook-Pro-7.local
Host: MacBook-Pro-7.local


Timers On : Wed Jun  4 16:30:43 2025
Timers On : Wed Jun  4 16:30:43 2025

Timers Off: Wed Jun  4 16:30:45 2025
Timers On : Wed Jun  4 16:30:43 2025

Wall Time:        1.69 seconds

Timers Off: Wed Jun  4 16:30:45 2025
                                                       Time (seconds)

Wall Time:        1.94 seconds

Module                                       User      System        Wall        Calls
                                                       Time (seconds)

--------------------------------------------------------------------------------------
Timers Off: Wed Jun  4 16:30:45 2025

**************************************************************************************

Wall Time:        1.43 seconds

Module                                       User      System        Wall        Calls
                                                       Time (seconds)

--------------------------------------------------------------------------------------
Module                                       User      System        Wall        Calls

**************************************************************************************

--------------------------------------------------------------------------------------

**************************************************************************************

Host: MacBook-Pro-7.local

Timers On : Wed Jun  4 16:30:46 2025
Timers Off: Wed Jun  4 16:30:47 2025

Wall Time:        1.35 seconds

                                                       Time (seconds)
Module                                       User      System        Wall        Calls

--------------------------------------------------------------------------------------

**************************************************************************************

Host: MacBook-Pro-7.local

Timers On : Wed Jun  4 16:30:46 2025
Timers Off: Wed Jun  4 16:30:47 2025

Wall Time:        1.37 seconds

                                                       Time (seconds)
Module                                       User      System        Wall        Calls

--------------------------------------------------------------------------------------

**************************************************************************************

Host: MacBook-Pro-7.local

Timers On : Wed Jun  4 16:30:46 2025
Timers Off: Wed Jun  4 16:30:47 2025

Wall Time:        1.40 seconds

                                                       Time (seconds)
Module                                       User      System        Wall        Calls

--------------------------------------------------------------------------------------

**************************************************************************************

Host: MacBook-Pro-7.local

Timers On : Wed Jun  4 16:31:02 2025
Timers Off: Wed Jun  4 16:31:04 2025

Wall Time:        1.53 seconds

                                                       Time (seconds)
Module                                       User      System        Wall        Calls

--------------------------------------------------------------------------------------

**************************************************************************************

Host: MacBook-Pro-7.local

Timers On : Wed Jun  4 16:31:04 2025
Timers Off: Wed Jun  4 16:31:05 2025

Wall Time:        0.92 seconds

                                                       Time (seconds)
Module                                       User      System        Wall        Calls

--------------------------------------------------------------------------------------

**************************************************************************************

Host: MacBook-Pro-7.local

Timers On : Wed Jun  4 16:31:36 2025
Timers Off: Wed Jun  4 16:31:38 2025

Wall Time:        1.60 seconds

                                                       Time (seconds)
Module                                       User      System        Wall        Calls

--------------------------------------------------------------------------------------

**************************************************************************************

Host: MacBook-Pro-7.local

Timers On : Wed Jun  4 16:31:38 2025
Timers Off: Wed Jun  4 16:31:39 2025

Wall Time:        0.87 seconds

                                                       Time (seconds)
Module                                       User      System        Wall        Calls

--------------------------------------------------------------------------------------

**************************************************************************************

Host: MacBook-Pro-7.local

Timers On : Wed Jun  4 16:32:33 2025
Timers Off: Wed Jun  4 16:32:35 2025

Wall Time:        2.15 seconds

                                                       Time (seconds)
Module                                       User      System        Wall        Calls

--------------------------------------------------------------------------------------

**************************************************************************************

Host: MacBook-Pro-7.local

Timers On : Wed Jun  4 16:32:34 2025
Timers Off: Wed Jun  4 16:32:35 2025

Wall Time:        1.96 seconds

                                                       Time (seconds)
Module                                       User      System        Wall        Calls

--------------------------------------------------------------------------------------

**************************************************************************************

Host: MacBook-Pro-7.local

Timers On : Wed Jun  4 16:32:36 2025
Timers Off: Wed Jun  4 16:32:39 2025

Wall Time:        2.57 seconds

                                                       Time (seconds)
Module                                       User      System        Wall        Calls

--------------------------------------------------------------------------------------

**************************************************************************************

Host: MacBook-Pro-7.local

Timers On : Wed Jun  4 16:32:36 2025
Timers Off: Wed Jun  4 16:32:39 2025

Wall Time:        2.62 seconds

                                                       Time (seconds)
Module                                       User      System        Wall        Calls

--------------------------------------------------------------------------------------

**************************************************************************************


Host: MacBook-Pro-7.local
Host: MacBook-Pro-7.local

Timers On : Wed Jun  4 16:36:13 2025

Timers Off: Wed Jun  4 16:36:15 2025

Wall Time:        1.86 seconds

                                                       Time (seconds)
Module                                       User      System        Wall        Calls

--------------------------------------------------------------------------------------
Timers On : Wed Jun  4 16:36:13 2025

**************************************************************************************
Timers Off: Wed Jun  4 16:36:15 2025

Wall Time:        1.86 seconds

                                                       Time (seconds)
Module                                       User      System        Wall        Calls

--------------------------------------------------------------------------------------

**************************************************************************************

Host: MacBook-Pro-7.local

Timers On : Wed Jun  4 16:36:16 2025
Timers Off: Wed Jun  4 16:36:17 2025

Wall Time:        1.24 seconds

                                                       Time (seconds)
Module                                       User      System        Wall        Calls

--------------------------------------------------------------------------------------

**************************************************************************************

Host: MacBook-Pro-7.local

Timers On : Wed Jun  4 16:36:16 2025
Timers Off: Wed Jun  4 16:36:17 2025

Wall Time:        1.25 seconds

                                                       Time (seconds)
Module                                       User      System        Wall        Calls

--------------------------------------------------------------------------------------

**************************************************************************************

Host: MacBook-Pro-7.local

Timers On : Wed Jun  4 16:36:30 2025
Timers Off: Wed Jun  4 16:36:32 2025

Wall Time:        1.39 seconds

                                                       Time (seconds)
Module                                       User      System        Wall        Calls

--------------------------------------------------------------------------------------

**************************************************************************************

Host: MacBook-Pro-7.local

Timers On : Wed Jun  4 16:36:30 2025
Timers Off: Wed Jun  4 16:36:32 2025

Wall Time:        1.47 seconds

                                                       Time (seconds)
Module                                       User      System        Wall        Calls

--------------------------------------------------------------------------------------

**************************************************************************************

Host: MacBook-Pro-7.local

Timers On : Wed Jun  4 16:36:32 2025
Timers Off: Wed Jun  4 16:36:34 2025

Wall Time:        1.12 seconds

                                                       Time (seconds)
Module                                       User      System        Wall        Calls

--------------------------------------------------------------------------------------

**************************************************************************************

Host: MacBook-Pro-7.local

Timers On : Wed Jun  4 16:36:32 2025
Timers Off: Wed Jun  4 16:36:34 2025

Wall Time:        1.12 seconds

                                                       Time (seconds)
Module                                       User      System        Wall        Calls

--------------------------------------------------------------------------------------

**************************************************************************************

Host: MacBook-Pro-7.local

Timers On : Wed Jun  4 16:36:53 2025
Timers Off: Wed Jun  4 16:36:54 2025

Wall Time:        1.69 seconds

                                                       Time (seconds)
Module                                       User      System        Wall        Calls

--------------------------------------------------------------------------------------

**************************************************************************************

Host: MacBook-Pro-7.local

Timers On : Wed Jun  4 16:36:55 2025
Timers Off: Wed Jun  4 16:36:56 2025

Wall Time:        1.19 seconds

                                                       Time (seconds)
Module                                       User      System        Wall        Calls

--------------------------------------------------------------------------------------

**************************************************************************************


Host: MacBook-Pro-7.local
Host: MacBook-Pro-7.local


Timers On : Wed Jun  4 16:37:03 2025
Timers On : Wed Jun  4 16:37:03 2025
Timers Off: Wed Jun  4 16:37:05 2025
Timers Off: Wed Jun  4 16:37:05 2025

Wall Time:        1.23 seconds


Wall Time:        1.47 seconds

                                                       Time (seconds)
                                                       Time (seconds)
Module                                       User      System        Wall        Calls
Module                                       User      System        Wall        Calls

--------------------------------------------------------------------------------------

--------------------------------------------------------------------------------------

**************************************************************************************

**************************************************************************************

Host: MacBook-Pro-7.local

Timers On : Wed Jun  4 16:37:05 2025
Timers Off: Wed Jun  4 16:37:06 2025

Wall Time:        0.93 seconds

                                                       Time (seconds)
Module                                       User      System        Wall        Calls

--------------------------------------------------------------------------------------

**************************************************************************************

Host: MacBook-Pro-7.local

Timers On : Wed Jun  4 16:37:05 2025
Timers Off: Wed Jun  4 16:37:06 2025

Wall Time:        0.93 seconds

                                                       Time (seconds)
Module                                       User      System        Wall        Calls

--------------------------------------------------------------------------------------

**************************************************************************************

Host: MacBook-Pro-7.local

Timers On : Wed Jun  4 16:37:26 2025
Timers Off: Wed Jun  4 16:37:28 2025

Wall Time:        1.59 seconds

                                                       Time (seconds)
Module                                       User      System        Wall        Calls

--------------------------------------------------------------------------------------

**************************************************************************************

Host: MacBook-Pro-7.local

Timers On : Wed Jun  4 16:37:28 2025
Timers Off: Wed Jun  4 16:37:29 2025

Wall Time:        1.03 seconds

                                                       Time (seconds)
Module                                       User      System        Wall        Calls

--------------------------------------------------------------------------------------

**************************************************************************************

Host: MacBook-Pro-7.local

Timers On : Wed Jun  4 16:37:49 2025
Timers Off: Wed Jun  4 16:37:53 2025

Wall Time:        3.61 seconds

                                                       Time (seconds)
Module                                       User      System        Wall        Calls

--------------------------------------------------------------------------------------

**************************************************************************************

Host: MacBook-Pro-7.local

Timers On : Wed Jun  4 16:37:58 2025
Timers Off: Wed Jun  4 16:38:07 2025

Wall Time:        9.33 seconds

                                                       Time (seconds)
Module                                       User      System        Wall        Calls

--------------------------------------------------------------------------------------

**************************************************************************************

Host: MacBook-Pro-7.local

Timers On : Wed Jun  4 16:38:40 2025
Timers Off: Wed Jun  4 16:38:43 2025

Wall Time:        3.50 seconds

                                                       Time (seconds)
Module                                       User      System        Wall        Calls

--------------------------------------------------------------------------------------

**************************************************************************************

Host: MacBook-Pro-7.local

Timers On : Wed Jun  4 16:38:45 2025
Timers Off: Wed Jun  4 16:38:47 2025

Wall Time:        2.16 seconds

                                                       Time (seconds)
Module                                       User      System        Wall        Calls

--------------------------------------------------------------------------------------

**************************************************************************************

Host: MacBook-Pro-7.local

Timers On : Wed Jun  4 16:46:23 2025
Timers Off: Wed Jun  4 16:46:24 2025

Wall Time:        1.53 seconds

                                                       Time (seconds)
Module                                       User      System        Wall        Calls

--------------------------------------------------------------------------------------

**************************************************************************************

Host: MacBook-Pro-7.local

Timers On : Wed Jun  4 16:46:24 2025
Timers Off: Wed Jun  4 16:46:25 2025

Wall Time:        1.29 seconds

                                                       Time (seconds)
Module                                       User      System        Wall        Calls

--------------------------------------------------------------------------------------

**************************************************************************************

Host: MacBook-Pro-7.local

Timers On : Wed Jun  4 16:46:25 2025
Timers Off: Wed Jun  4 16:46:26 2025

Wall Time:        1.29 seconds

                                                       Time (seconds)
Module                                       User      System        Wall        Calls

--------------------------------------------------------------------------------------

**************************************************************************************

Host: MacBook-Pro-7.local

Timers On : Wed Jun  4 16:46:26 2025
Timers Off: Wed Jun  4 16:46:27 2025

Wall Time:        1.01 seconds

                                                       Time (seconds)
Module                                       User      System        Wall        Calls

--------------------------------------------------------------------------------------

**************************************************************************************

Host: MacBook-Pro-7.local

Timers On : Wed Jun  4 16:48:00 2025
Timers Off: Wed Jun  4 16:48:02 2025

Wall Time:        2.31 seconds

                                                       Time (seconds)
Module                                       User      System        Wall        Calls

--------------------------------------------------------------------------------------

**************************************************************************************

Host: MacBook-Pro-7.local

Timers On : Wed Jun  4 16:48:03 2025
Timers Off: Wed Jun  4 16:48:04 2025

Wall Time:        1.09 seconds

                                                       Time (seconds)
Module                                       User      System        Wall        Calls

--------------------------------------------------------------------------------------

**************************************************************************************
