
Host: MacBook-Pro-7.local

Timers On : Thu Jun  5 01:55:22 2025
Timers Off: Thu Jun  5 01:55:22 2025

Wall Time:        0.76 seconds

                                                       Time (seconds)
Module                                       User      System        Wall        Calls

--------------------------------------------------------------------------------------

**************************************************************************************
